LAMMPS (29 Aug 2024 - Development - b137ae0-modified)
OMP_NUM_THREADS environment is not set. Defaulting to 1 thread. (src/comm.cpp:98)
  using 1 OpenMP thread(s) per MPI task
Reading data file ...
  orthogonal box = (-50 -50 -50) to (50 50 50)
  1 by 1 by 1 MPI processor grid
  reading atoms ...
  13 atoms
Finding 1-2 1-3 1-4 neighbors ...
  special bond factors lj:    0        0        0.5     
  special bond factors coul:  0        0        0.5     
     0 = max # of 1-2 neighbors
     0 = max # of 1-3 neighbors
     0 = max # of 1-4 neighbors
     1 = max # of special neighbors
  special bonds CPU = 0.000 seconds
  read_data CPU = 0.002 seconds
###############################################
               PPP INITIALIZATION              
###############################################
Number of atoms:  13
Number of electrons:  14
Number of orbitals:  7
Mode:  rhf
Gamma parametrization:  BH
Beta parametrization:  BH
Ionization Potential choice:  BH
Electron Affinity choice:  BH
Max number of iterations:  100
Error tolerance:  1e-06
Energy tolerance:  0.0001
###############################################

this works
Number of CUDA-capable devices:  4
Name:  NVIDIA A30
Name:  NVIDIA A30
Name:  NVIDIA A30
Name:  NVIDIA A30
cudaMalloc: cudaSuccess
cudaMemcpy: cudaSuccess
cusolverDnCreate success
cusolverDnDsyevd_bufferSize success
Buffer size: 35401
cudaMallocEigenvalue:  cudaSuccess
cudaMallocWork:  cudaSuccess
cudaMallocInfo:  cudaSuccess
cusolverDnDsyevd success
cudaMemcpyEigenBack: cudaSuccess
0 2 
cudaMemcpyEigenvec: cudaSuccess
Eigenvector  0
-0.7071067811865475 -0.7071067811865475 
Eigenvector  1
-0.7071067811865475 0.7071067811865475 
cudaMallocFockMatrix: cudaSuccess
cudaMemcpyFockMatrix: cudaSuccess
cusolverDnCreate success
cusolverDnDsyevd_bufferSize success
Buffer size: 37508
cudaMallocEigenvalue:  cudaSuccess
cudaMallocWork:  cudaSuccess
cudaMallocInfo:  cudaSuccess
cusolverDnDsyevd success
cudaMemcpyEigenBack: cudaSuccess
cudaMemcpyEigenvec: cudaSuccess

CITE-CITE-CITE-CITE-CITE-CITE-CITE-CITE-CITE-CITE-CITE-CITE-CITE

Your simulation uses code contributions which should be cited:
- Type Label Framework: https://doi.org/10.1021/acs.jpcb.3c08419
The log file lists these citations in BibTeX format.

CITE-CITE-CITE-CITE-CITE-CITE-CITE-CITE-CITE-CITE-CITE-CITE-CITE

WARNING: No fixes with time integration, atoms won't move (src/verlet.cpp:60)
Generated 1 of 1 mixed pair_coeff terms from geometric mixing rule
Neighbor list info ...
  update: every = 1 steps, delay = 0 steps, check = yes
  max neighbors/atom: 10000, page size: 100000
  master list distance cutoff = 14
  ghost atom cutoff = 14
  binsize = 7, bins = 15 15 15
  1 neighbor lists, perpetual/occasional/extra = 1 0 0
  (1) pair lj/cut, perpetual
      attributes: half, newton on
      pair build: half/bin/newton
      stencil: half/bin/3d
      bin: standard
Setting up Verlet run ...
  Unit style    : real
  Current step  : 0
  Time step     : 1
Per MPI rank memory allocation (min/avg/max) = 6.028 | 6.028 | 6.028 Mbytes
   Step          Temp          Press          Volume         TotEng         E_coul         KinEng         PotEng    
         0   0              63364.248      1000000        230517.85      0              0              230517.85    


Warm-Up Phase

Iteration:  -4
cudaMallocA success
cudaMallocB success
cudaMallocC success
cudaMallocFockMatrix: cudaSuccess
cudaMemcpyFockMatrix: cudaSuccess
cusolverDnCreate success
cusolverDnDsyevd_bufferSize success
Buffer size: 37508
cudaMallocEigenvalue:  cudaSuccess
cudaMallocWork:  cudaSuccess
cudaMallocInfo:  cudaSuccess
cusolverDnDsyevd success
cudaMemcpyEigenBack: cudaSuccess
cudaMemcpyEigenvec: cudaSuccess
Total energy:  0
buildDensityTime:  0.000755406000000125
buildFockTime: 0.006524292000000376
solveFockTime: 0.003272139999999979
Iteration:  -3
cudaMallocA success
cudaMallocB success
cudaMallocC success
cudaMallocFockMatrix: cudaSuccess
cudaMemcpyFockMatrix: cudaSuccess
cusolverDnCreate success
cusolverDnDsyevd_bufferSize success
Buffer size: 37508
cudaMallocEigenvalue:  cudaSuccess
cudaMallocWork:  cudaSuccess
cudaMallocInfo:  cudaSuccess
cusolverDnDsyevd success
cudaMemcpyEigenBack: cudaSuccess
cudaMemcpyEigenvec: cudaSuccess
Total energy:  0
buildDensityTime:  0.0007803430000001832
buildFockTime: 5.339999999964817e-06
solveFockTime: 0.0021018549999998193
Iteration:  -2
cudaMallocA success
cudaMallocB success
cudaMallocC success
cudaMallocFockMatrix: cudaSuccess
cudaMemcpyFockMatrix: cudaSuccess
cusolverDnCreate success
cusolverDnDsyevd_bufferSize success
Buffer size: 37508
cudaMallocEigenvalue:  cudaSuccess
cudaMallocWork:  cudaSuccess
cudaMallocInfo:  cudaSuccess
cusolverDnDsyevd success
cudaMemcpyEigenBack: cudaSuccess
cudaMemcpyEigenvec: cudaSuccess
Total energy:  0
buildDensityTime:  0.0007462590000000269
buildFockTime: 4.820000000016478e-06
solveFockTime: 0.002089952999999589
Iteration:  -1
cudaMallocA success
cudaMallocB success
cudaMallocC success
cudaMallocFockMatrix: cudaSuccess
cudaMemcpyFockMatrix: cudaSuccess
cusolverDnCreate success
cusolverDnDsyevd_bufferSize success
Buffer size: 37508
cudaMallocEigenvalue:  cudaSuccess
cudaMallocWork:  cudaSuccess
cudaMallocInfo:  cudaSuccess
cusolverDnDsyevd success
cudaMemcpyEigenBack: cudaSuccess
cudaMemcpyEigenvec: cudaSuccess
Total energy:  0
buildDensityTime:  0.0007452569999997216
buildFockTime: 4.950000000114585e-06
solveFockTime: 0.002075755999999984
Iteration:  0
cudaMallocA success
cudaMallocB success
cudaMallocC success
cudaMallocFockMatrix: cudaSuccess
cudaMemcpyFockMatrix: cudaSuccess
cusolverDnCreate success
cusolverDnDsyevd_bufferSize success
Buffer size: 37508
cudaMallocEigenvalue:  cudaSuccess
cudaMallocWork:  cudaSuccess
cudaMallocInfo:  cudaSuccess
cusolverDnDsyevd success
cudaMemcpyEigenBack: cudaSuccess
cudaMemcpyEigenvec: cudaSuccess
Total energy:  0
buildDensityTime:  0.0007496749999997832
buildFockTime: 4.9399999997312705e-06
solveFockTime: 0.002099942000000077


Pre-DIIS Phase

Iteration:  1
cudaMallocA success
cudaMallocB success
cudaMallocC success
cudaMallocFockMatrix: cudaSuccess
cudaMemcpyFockMatrix: cudaSuccess
cusolverDnCreate success
cusolverDnDsyevd_bufferSize success
Buffer size: 37508
cudaMallocEigenvalue:  cudaSuccess
cudaMallocWork:  cudaSuccess
cudaMallocInfo:  cudaSuccess
cusolverDnDsyevd success
cudaMemcpyEigenBack: cudaSuccess
cudaMemcpyEigenvec: cudaSuccess
Total energy:  -23.789902134026626
Ediff:  23.789902134026626
Norm error: 0
buildDensityTime:  0.0007484529999999268
buildFockTime: 5.009999999749937e-06
solveFockTime: 0.002089111000000088
Iteration:  2
cudaMallocA success
cudaMallocB success
cudaMallocC success
cudaMallocFockMatrix: cudaSuccess
cudaMemcpyFockMatrix: cudaSuccess
cusolverDnCreate success
cusolverDnDsyevd_bufferSize success
Buffer size: 37508
cudaMallocEigenvalue:  cudaSuccess
cudaMallocWork:  cudaSuccess
cudaMallocInfo:  cudaSuccess
cusolverDnDsyevd success
cudaMemcpyEigenBack: cudaSuccess
cudaMemcpyEigenvec: cudaSuccess
Total energy:  -23.789902426708803
Ediff:  2.9268217716094114e-07
Norm error: 0
buildDensityTime:  0.0007463790000001858
buildFockTime: 4.8589999996906386e-06
solveFockTime: 0.0020719179999999504


DIIS Phase

         1   0              63364.248      1000000        230517.85      0              0              230517.85    
Loop time of 0.0278645 on 1 procs for 1 steps with 13 atoms

Performance: 3.101 ns/day, 7.740 hours/ns, 35.888 timesteps/s, 466.544 atom-step/s
18.0% CPU use with 1 MPI tasks x 1 OpenMP threads

MPI task timing breakdown:
Section |  min time  |  avg time  |  max time  |%varavg| %total
---------------------------------------------------------------
Pair    | 2.765e-06  | 2.765e-06  | 2.765e-06  |   0.0 |  0.01
Bond    | 2.31e-07   | 2.31e-07   | 2.31e-07   |   0.0 |  0.00
Neigh   | 0          | 0          | 0          |   0.0 |  0.00
Comm    | 7.91e-07   | 7.91e-07   | 7.91e-07   |   0.0 |  0.00
Output  | 3.8954e-05 | 3.8954e-05 | 3.8954e-05 |   0.0 |  0.14
Modify  | 0.027814   | 0.027814   | 0.027814   |   0.0 | 99.82
Other   |            | 8.226e-06  |            |       |  0.03

Nlocal:             13 ave          13 max          13 min
Histogram: 1 0 0 0 0 0 0 0 0 0
Nghost:              0 ave           0 max           0 min
Histogram: 1 0 0 0 0 0 0 0 0 0
Neighs:             78 ave          78 max          78 min
Histogram: 1 0 0 0 0 0 0 0 0 0

Total # of neighbors = 78
Ave neighs/atom = 6
Ave special neighs/atom = 0
Neighbor list builds = 0
Dangerous builds = 0
###############################################
              PPP OUTPUT SUMMARY               
###############################################
Occupied
-16.850073067705832
-13.641893040570347
-13.641862774921888
-13.04846267810568
-11.463186857018712
-11.463117588188219
-8.09103863382404
Unoccupied
-2.6466100558514345
-1.0683030199185184
-1.0682225858981327
1.4151395336474517
1.415158762745469
2.4775754022094034
Total energy: -647.0853460064794
###############################################
System init for write_data ...
Generated 1 of 1 mixed pair_coeff terms from geometric mixing rule
Total wall time: 0:00:03
