LAMMPS data file via write_data, version 29 Aug 2024, timestep = 1, units = real

8 atoms
1 atom types

-50 50 xlo xhi
-50 50 ylo yhi
-50 50 zlo zhi

Masses

1 12

Pair Coeffs # lj/cut

1 0.066 3.5

Atoms # full

3 1 1 0 -1.34491 -1.13624 -0 0 0 0
1 1 1 0 -0 -0.70292 0 0 0 0
4 1 1 0 1.34491 -1.13624 0 0 0 0
5 1 1 0 -1.34491 1.13624 0 0 0 0
7 1 1 0 -2.17345 0 0 0 0 0
2 1 1 0 0 0.70292 0 0 0 0
6 1 1 0 1.34491 1.13624 0 0 0 0
8 1 1 0 2.17345 0 0 0 0 0

Velocities

3 0 0 0
1 0 0 0
4 0 0 0
5 0 0 0
7 0 0 0
2 0 0 0
6 0 0 0
8 0 0 0
