LAMMPS data file via write_data, version 29 Aug 2024, timestep = 500016, units = real

8 atoms
1 atom types

-50.0 50.0 xlo xhi
-50.0 50.0  ylo yhi
-50.0 50.0 zlo zhi

Masses

1 12

Pair Coeffs # lj/cut/coul/long

1 0.066 3.5

Atoms # full

1 1 1 0.000  -0.00000 -0.70292 0.00000
2 1 1 0.000  0.00000 0.70292 0.00000
3 1 1 0.000  -1.34491 -1.13624 -0.00000
4 1 1 0.000  1.34491 -1.13624 0.00000
5 1 1 0.000  -1.34491 1.13624 0.00000
6 1 1 0.000  1.34491 1.13624 0.00000
7 1 1 0.000  -2.17345 0.00000 0.00000
8 1 1 0.000  2.17345 0.00000 0.00000
